LAMMPS data file — SPC/E water box

648 atoms
432 bonds
216 angles
0 dihedrals
0 impropers

2 atom types
1 bond types
1 angle types

0.0 18.644498 xlo xhi
0.0 18.644498 ylo yhi
0.0 18.644498 zlo zhi

Masses

1 15.9994  # O
2  1.0080  # H

Atoms  # full

1 1 1 -0.8476 1.545410 1.575741 1.503720
2 1 2 0.4238 2.361901 1.575741 2.081079
3 1 2 0.4238 0.728920 1.575741 2.081079
4 2 1 -0.8476 1.547308 1.506301 4.666091
5 2 2 0.4238 2.363798 1.506301 5.243450
6 2 2 0.4238 0.730817 1.506301 5.243450
7 3 1 -0.8476 1.558788 1.574523 7.747631
8 3 2 0.4238 2.375278 1.574523 8.324990
9 3 2 0.4238 0.742298 1.574523 8.324990
10 4 1 -0.8476 1.600411 1.558431 10.923226
11 4 2 0.4238 2.416902 1.558431 11.500585
12 4 2 0.4238 0.783921 1.558431 11.500585
13 5 1 -0.8476 1.525908 1.590781 13.954046
14 5 2 0.4238 2.342398 1.590781 14.531405
15 5 2 0.4238 0.709417 1.590781 14.531405
16 6 1 -0.8476 1.592994 1.536906 17.122913
17 6 2 0.4238 2.409485 1.536906 17.700272
18 6 2 0.4238 0.776504 1.536906 17.700272
19 7 1 -0.8476 1.511339 4.689116 1.547549
20 7 2 0.4238 2.327829 4.689116 2.124908
21 7 2 0.4238 0.694849 4.689116 2.124908
22 8 1 -0.8476 1.591051 4.707979 4.698044
23 8 2 0.4238 2.407542 4.707979 5.275403
24 8 2 0.4238 0.774561 4.707979 5.275403
25 9 1 -0.8476 1.504746 4.661312 7.768118
26 9 2 0.4238 2.321236 4.661312 8.345477
27 9 2 0.4238 0.688255 4.661312 8.345477
28 10 1 -0.8476 1.580840 4.613200 10.889322
29 10 2 0.4238 2.397331 4.613200 11.466681
30 10 2 0.4238 0.764350 4.613200 11.466681
31 11 1 -0.8476 1.521735 4.613072 13.979696
32 11 2 0.4238 2.338226 4.613072 14.557055
33 11 2 0.4238 0.705245 4.613072 14.557055
34 12 1 -0.8476 1.519124 4.685130 17.067122
35 12 2 0.4238 2.335615 4.685130 17.644481
36 12 2 0.4238 0.702634 4.685130 17.644481
37 13 1 -0.8476 1.581478 7.742295 1.586136
38 13 2 0.4238 2.397969 7.742295 2.163495
39 13 2 0.4238 0.764988 7.742295 2.163495
40 14 1 -0.8476 1.555103 7.795857 4.698167
41 14 2 0.4238 2.371593 7.795857 5.275526
42 14 2 0.4238 0.738612 7.795857 5.275526
43 15 1 -0.8476 1.588590 7.736431 7.723977
44 15 2 0.4238 2.405080 7.736431 8.301336
45 15 2 0.4238 0.772100 7.736431 8.301336
46 16 1 -0.8476 1.526037 7.770857 10.881028
47 16 2 0.4238 2.342528 7.770857 11.458386
48 16 2 0.4238 0.709547 7.770857 11.458386
49 17 1 -0.8476 1.533175 7.771600 13.952526
50 17 2 0.4238 2.349665 7.771600 14.529885
51 17 2 0.4238 0.716684 7.771600 14.529885
52 18 1 -0.8476 1.568746 7.769086 17.128650
53 18 2 0.4238 2.385236 7.769086 17.706009
54 18 2 0.4238 0.752255 7.769086 17.706009
55 19 1 -0.8476 1.513462 10.902082 1.528402
56 19 2 0.4238 2.329952 10.902082 2.105761
57 19 2 0.4238 0.696971 10.902082 2.105761
58 20 1 -0.8476 1.562521 10.915729 4.700278
59 20 2 0.4238 2.379012 10.915729 5.277637
60 20 2 0.4238 0.746031 10.915729 5.277637
61 21 1 -0.8476 1.508581 10.854868 7.790638
62 21 2 0.4238 2.325071 10.854868 8.367997
63 21 2 0.4238 0.692090 10.854868 8.367997
64 22 1 -0.8476 1.524554 10.874125 10.868011
65 22 2 0.4238 2.341045 10.874125 11.445370
66 22 2 0.4238 0.708064 10.874125 11.445370
67 23 1 -0.8476 1.555438 10.920654 14.009920
68 23 2 0.4238 2.371928 10.920654 14.587279
69 23 2 0.4238 0.738948 10.920654 14.587279
70 24 1 -0.8476 1.599710 10.895909 17.140777
71 24 2 0.4238 2.416200 10.895909 17.718136
72 24 2 0.4238 0.783219 10.895909 17.718136
73 25 1 -0.8476 1.590721 13.991601 1.531592
74 25 2 0.4238 2.407211 13.991601 2.108951
75 25 2 0.4238 0.774230 13.991601 2.108951
76 26 1 -0.8476 1.534502 13.985313 4.687954
77 26 2 0.4238 2.350992 13.985313 5.265313
78 26 2 0.4238 0.718011 13.985313 5.265313
79 27 1 -0.8476 1.546280 14.014832 7.792081
80 27 2 0.4238 2.362771 14.014832 8.369440
81 27 2 0.4238 0.729790 14.014832 8.369440
82 28 1 -0.8476 1.576610 13.989498 10.838454
83 28 2 0.4238 2.393100 13.989498 11.415813
84 28 2 0.4238 0.760119 13.989498 11.415813
85 29 1 -0.8476 1.590084 13.961864 13.940699
86 29 2 0.4238 2.406575 13.961864 14.518058
87 29 2 0.4238 0.773594 13.961864 14.518058
88 30 1 -0.8476 1.568123 13.971449 17.107095
89 30 2 0.4238 2.384613 13.971449 17.684454
90 30 2 0.4238 0.751632 13.971449 17.684454
91 31 1 -0.8476 1.532314 17.136601 1.580739
92 31 2 0.4238 2.348804 17.136601 2.158098
93 31 2 0.4238 0.715823 17.136601 2.158098
94 32 1 -0.8476 1.589597 17.078061 4.666637
95 32 2 0.4238 2.406088 17.078061 5.243996
96 32 2 0.4238 0.773107 17.078061 5.243996
97 33 1 -0.8476 1.528559 17.085788 7.759635
98 33 2 0.4238 2.345050 17.085788 8.336994
99 33 2 0.4238 0.712069 17.085788 8.336994
100 34 1 -0.8476 1.507564 17.118800 10.835228
101 34 2 0.4238 2.324055 17.118800 11.412587
102 34 2 0.4238 0.691074 17.118800 11.412587
103 35 1 -0.8476 1.549514 17.071625 13.956522
104 35 2 0.4238 2.366004 17.071625 14.533881
105 35 2 0.4238 0.733023 17.071625 14.533881
106 36 1 -0.8476 1.576559 17.100952 17.136008
107 36 2 0.4238 2.393049 17.100952 17.713367
108 36 2 0.4238 0.760068 17.100952 17.713367
109 37 1 -0.8476 4.705574 1.550118 1.522988
110 37 2 0.4238 5.522065 1.550118 2.100347
111 37 2 0.4238 3.889084 1.550118 2.100347
112 38 1 -0.8476 4.649602 1.589679 4.705545
113 38 2 0.4238 5.466092 1.589679 5.282904
114 38 2 0.4238 3.833111 1.589679 5.282904
115 39 1 -0.8476 4.665814 1.583498 7.800581
116 39 2 0.4238 5.482304 1.583498 8.377940
117 39 2 0.4238 3.849323 1.583498 8.377940
118 40 1 -0.8476 4.651893 1.509245 10.904811
119 40 2 0.4238 5.468384 1.509245 11.482170
120 40 2 0.4238 3.835403 1.509245 11.482170
121 41 1 -0.8476 4.636217 1.508318 14.001055
122 41 2 0.4238 5.452707 1.508318 14.578414
123 41 2 0.4238 3.819727 1.508318 14.578414
124 42 1 -0.8476 4.648579 1.598780 17.113990
125 42 2 0.4238 5.465069 1.598780 17.691349
126 42 2 0.4238 3.832088 1.598780 17.691349
127 43 1 -0.8476 4.622630 4.672031 1.517047
128 43 2 0.4238 5.439120 4.672031 2.094406
129 43 2 0.4238 3.806140 4.672031 2.094406
130 44 1 -0.8476 4.694609 4.621604 4.685589
131 44 2 0.4238 5.511099 4.621604 5.262948
132 44 2 0.4238 3.878118 4.621604 5.262948
133 45 1 -0.8476 4.710026 4.666079 7.746686
134 45 2 0.4238 5.526516 4.666079 8.324045
135 45 2 0.4238 3.893535 4.666079 8.324045
136 46 1 -0.8476 4.689508 4.674608 10.850862
137 46 2 0.4238 5.505998 4.674608 11.428221
138 46 2 0.4238 3.873017 4.674608 11.428221
139 47 1 -0.8476 4.622473 4.708573 14.006247
140 47 2 0.4238 5.438964 4.708573 14.583606
141 47 2 0.4238 3.805983 4.708573 14.583606
142 48 1 -0.8476 4.612874 4.700282 17.069276
143 48 2 0.4238 5.429364 4.700282 17.646635
144 48 2 0.4238 3.796383 4.700282 17.646635
145 49 1 -0.8476 4.641221 7.743247 1.596342
146 49 2 0.4238 5.457711 7.743247 2.173701
147 49 2 0.4238 3.824731 7.743247 2.173701
148 50 1 -0.8476 4.660585 7.741349 4.636672
149 50 2 0.4238 5.477075 7.741349 5.214031
150 50 2 0.4238 3.844094 7.741349 5.214031
151 51 1 -0.8476 4.678698 7.723012 7.752871
152 51 2 0.4238 5.495188 7.723012 8.330230
153 51 2 0.4238 3.862207 7.723012 8.330230
154 52 1 -0.8476 4.693436 7.721153 10.847034
155 52 2 0.4238 5.509926 7.721153 11.424393
156 52 2 0.4238 3.876945 7.721153 11.424393
157 53 1 -0.8476 4.695791 7.774658 13.978861
158 53 2 0.4238 5.512281 7.774658 14.556220
159 53 2 0.4238 3.879300 7.774658 14.556220
160 54 1 -0.8476 4.653143 7.754865 17.059278
161 54 2 0.4238 5.469633 7.754865 17.636637
162 54 2 0.4238 3.836652 7.754865 17.636637
163 55 1 -0.8476 4.620435 10.923123 1.552094
164 55 2 0.4238 5.436926 10.923123 2.129453
165 55 2 0.4238 3.803945 10.923123 2.129453
166 56 1 -0.8476 4.709544 10.859299 4.678495
167 56 2 0.4238 5.526034 10.859299 5.255854
168 56 2 0.4238 3.893053 10.859299 5.255854
169 57 1 -0.8476 4.619860 10.849005 7.759647
170 57 2 0.4238 5.436350 10.849005 8.337006
171 57 2 0.4238 3.803369 10.849005 8.337006
172 58 1 -0.8476 4.647635 10.871078 10.875563
173 58 2 0.4238 5.464126 10.871078 11.452922
174 58 2 0.4238 3.831145 10.871078 11.452922
175 59 1 -0.8476 4.703528 10.841744 14.020065
176 59 2 0.4238 5.520019 10.841744 14.597424
177 59 2 0.4238 3.887038 10.841744 14.597424
178 60 1 -0.8476 4.641212 10.844652 17.073108
179 60 2 0.4238 5.457702 10.844652 17.650467
180 60 2 0.4238 3.824721 10.844652 17.650467
181 61 1 -0.8476 4.693572 13.951509 1.591441
182 61 2 0.4238 5.510062 13.951509 2.168800
183 61 2 0.4238 3.877081 13.951509 2.168800
184 62 1 -0.8476 4.614500 13.982285 4.695733
185 62 2 0.4238 5.430990 13.982285 5.273092
186 62 2 0.4238 3.798010 13.982285 5.273092
187 63 1 -0.8476 4.666519 13.972999 7.723354
188 63 2 0.4238 5.483009 13.972999 8.300713
189 63 2 0.4238 3.850028 13.972999 8.300713
190 64 1 -0.8476 4.649034 13.990084 10.885517
191 64 2 0.4238 5.465525 13.990084 11.462876
192 64 2 0.4238 3.832544 13.990084 11.462876
193 65 1 -0.8476 4.632989 13.936514 13.962086
194 65 2 0.4238 5.449480 13.936514 14.539445
195 65 2 0.4238 3.816499 13.936514 14.539445
196 66 1 -0.8476 4.626553 13.946744 17.077059
197 66 2 0.4238 5.443044 13.946744 17.654418
198 66 2 0.4238 3.810063 13.946744 17.654418
199 67 1 -0.8476 4.665710 17.126676 1.572297
200 67 2 0.4238 5.482200 17.126676 2.149656
201 67 2 0.4238 3.849219 17.126676 2.149656
202 68 1 -0.8476 4.637062 17.045126 4.669328
203 68 2 0.4238 5.453552 17.045126 5.246687
204 68 2 0.4238 3.820571 17.045126 5.246687
205 69 1 -0.8476 4.640750 17.121697 7.753566
206 69 2 0.4238 5.457240 17.121697 8.330925
207 69 2 0.4238 3.824259 17.121697 8.330925
208 70 1 -0.8476 4.703873 17.128033 10.884420
209 70 2 0.4238 5.520363 17.128033 11.461779
210 70 2 0.4238 3.887382 17.128033 11.461779
211 71 1 -0.8476 4.629682 17.079450 14.016563
212 71 2 0.4238 5.446173 17.079450 14.593922
213 71 2 0.4238 3.813192 17.079450 14.593922
214 72 1 -0.8476 4.621798 17.109224 17.094286
215 72 2 0.4238 5.438289 17.109224 17.671645
216 72 2 0.4238 3.805308 17.109224 17.671645
217 73 1 -0.8476 7.782810 1.557570 1.554898
218 73 2 0.4238 8.599300 1.557570 2.132257
219 73 2 0.4238 6.966320 1.557570 2.132257
220 74 1 -0.8476 7.738761 1.582163 4.697178
221 74 2 0.4238 8.555252 1.582163 5.274537
222 74 2 0.4238 6.922271 1.582163 5.274537
223 75 1 -0.8476 7.775435 1.510305 7.807352
224 75 2 0.4238 8.591925 1.510305 8.384711
225 75 2 0.4238 6.958945 1.510305 8.384711
226 76 1 -0.8476 7.749624 1.585607 10.859433
227 76 2 0.4238 8.566114 1.585607 11.436792
228 76 2 0.4238 6.933134 1.585607 11.436792
229 77 1 -0.8476 7.810452 1.567928 14.008745
230 77 2 0.4238 8.626942 1.567928 14.586104
231 77 2 0.4238 6.993961 1.567928 14.586104
232 78 1 -0.8476 7.723359 1.571804 17.120660
233 78 2 0.4238 8.539850 1.571804 17.698019
234 78 2 0.4238 6.906869 1.571804 17.698019
235 79 1 -0.8476 7.768608 4.657931 1.553786
236 79 2 0.4238 8.585098 4.657931 2.131145
237 79 2 0.4238 6.952117 4.657931 2.131145
238 80 1 -0.8476 7.770733 4.681065 4.638111
239 80 2 0.4238 8.587223 4.681065 5.215470
240 80 2 0.4238 6.954242 4.681065 5.215470
241 81 1 -0.8476 7.754083 4.645209 7.811852
242 81 2 0.4238 8.570573 4.645209 8.389211
243 81 2 0.4238 6.937592 4.645209 8.389211
244 82 1 -0.8476 7.746064 4.675048 10.888347
245 82 2 0.4238 8.562554 4.675048 11.465706
246 82 2 0.4238 6.929573 4.675048 11.465706
247 83 1 -0.8476 7.744245 4.679503 13.999738
248 83 2 0.4238 8.560736 4.679503 14.577097
249 83 2 0.4238 6.927755 4.679503 14.577097
250 84 1 -0.8476 7.723145 4.648149 17.065022
251 84 2 0.4238 8.539636 4.648149 17.642381
252 84 2 0.4238 6.906655 4.648149 17.642381
253 85 1 -0.8476 7.780578 7.769436 1.533533
254 85 2 0.4238 8.597069 7.769436 2.110892
255 85 2 0.4238 6.964088 7.769436 2.110892
256 86 1 -0.8476 7.738802 7.739250 4.626388
257 86 2 0.4238 8.555292 7.739250 5.203747
258 86 2 0.4238 6.922311 7.739250 5.203747
259 87 1 -0.8476 7.784167 7.814031 7.815629
260 87 2 0.4238 8.600658 7.814031 8.392988
261 87 2 0.4238 6.967677 7.814031 8.392988
262 88 1 -0.8476 7.783296 7.769256 10.878792
263 88 2 0.4238 8.599787 7.769256 11.456150
264 88 2 0.4238 6.966806 7.769256 11.456150
265 89 1 -0.8476 7.768510 7.744135 13.959184
266 89 2 0.4238 8.585001 7.744135 14.536543
267 89 2 0.4238 6.952020 7.744135 14.536543
268 90 1 -0.8476 7.733846 7.734310 17.139339
269 90 2 0.4238 8.550337 7.734310 17.716698
270 90 2 0.4238 6.917356 7.734310 17.716698
271 91 1 -0.8476 7.738641 10.858859 1.533358
272 91 2 0.4238 8.555132 10.858859 2.110717
273 91 2 0.4238 6.922151 10.858859 2.110717
274 92 1 -0.8476 7.807129 10.904816 4.653597
275 92 2 0.4238 8.623619 10.904816 5.230956
276 92 2 0.4238 6.990639 10.904816 5.230956
277 93 1 -0.8476 7.779176 10.891709 7.749265
278 93 2 0.4238 8.595667 10.891709 8.326624
279 93 2 0.4238 6.962686 10.891709 8.326624
280 94 1 -0.8476 7.790480 10.886679 10.894944
281 94 2 0.4238 8.606970 10.886679 11.472302
282 94 2 0.4238 6.973989 10.886679 11.472302
283 95 1 -0.8476 7.741421 10.845026 14.022010
284 95 2 0.4238 8.557912 10.845026 14.599369
285 95 2 0.4238 6.924931 10.845026 14.599369
286 96 1 -0.8476 7.740010 10.916908 17.122514
287 96 2 0.4238 8.556500 10.916908 17.699873
288 96 2 0.4238 6.923519 10.916908 17.699873
289 97 1 -0.8476 7.802235 14.030397 1.548424
290 97 2 0.4238 8.618726 14.030397 2.125783
291 97 2 0.4238 6.985745 14.030397 2.125783
292 98 1 -0.8476 7.791768 13.990093 4.641247
293 98 2 0.4238 8.608258 13.990093 5.218606
294 98 2 0.4238 6.975277 13.990093 5.218606
295 99 1 -0.8476 7.785769 13.982182 7.801090
296 99 2 0.4238 8.602259 13.982182 8.378449
297 99 2 0.4238 6.969278 13.982182 8.378449
298 100 1 -0.8476 7.772881 13.961211 10.868409
299 100 2 0.4238 8.589372 13.961211 11.445768
300 100 2 0.4238 6.956391 13.961211 11.445768
301 101 1 -0.8476 7.770181 13.990441 13.936221
302 101 2 0.4238 8.586671 13.990441 14.513580
303 101 2 0.4238 6.953690 13.990441 14.513580
304 102 1 -0.8476 7.778309 14.000972 17.070718
305 102 2 0.4238 8.594800 14.000972 17.648077
306 102 2 0.4238 6.961819 14.000972 17.648077
307 103 1 -0.8476 7.761752 17.058212 1.520803
308 103 2 0.4238 8.578243 17.058212 2.098162
309 103 2 0.4238 6.945262 17.058212 2.098162
310 104 1 -0.8476 7.733333 17.063620 4.691874
311 104 2 0.4238 8.549823 17.063620 5.269233
312 104 2 0.4238 6.916843 17.063620 5.269233
313 105 1 -0.8476 7.726915 17.074141 7.804477
314 105 2 0.4238 8.543405 17.074141 8.381836
315 105 2 0.4238 6.910425 17.074141 8.381836
316 106 1 -0.8476 7.719397 17.136221 10.870914
317 106 2 0.4238 8.535888 17.136221 11.448273
318 106 2 0.4238 6.902907 17.136221 11.448273
319 107 1 -0.8476 7.734811 17.116268 13.989714
320 107 2 0.4238 8.551302 17.116268 14.567073
321 107 2 0.4238 6.918321 17.116268 14.567073
322 108 1 -0.8476 7.741902 17.044229 17.098799
323 108 2 0.4238 8.558393 17.044229 17.676158
324 108 2 0.4238 6.925412 17.044229 17.676158
325 109 1 -0.8476 10.887103 1.552851 1.573637
326 109 2 0.4238 11.703594 1.552851 2.150996
327 109 2 0.4238 10.070613 1.552851 2.150996
328 110 1 -0.8476 10.837563 1.569554 4.648683
329 110 2 0.4238 11.654054 1.569554 5.226042
330 110 2 0.4238 10.021073 1.569554 5.226042
331 111 1 -0.8476 10.887174 1.520615 7.762147
332 111 2 0.4238 11.703665 1.520615 8.339506
333 111 2 0.4238 10.070684 1.520615 8.339506
334 112 1 -0.8476 10.863463 1.567739 10.920959
335 112 2 0.4238 11.679954 1.567739 11.498318
336 112 2 0.4238 10.046973 1.567739 11.498318
337 113 1 -0.8476 10.911156 1.511099 14.022867
338 113 2 0.4238 11.727646 1.511099 14.600226
339 113 2 0.4238 10.094665 1.511099 14.600226
340 114 1 -0.8476 10.841121 1.590583 17.133379
341 114 2 0.4238 11.657611 1.590583 17.710737
342 114 2 0.4238 10.024630 1.590583 17.710737
343 115 1 -0.8476 10.845567 4.681402 1.545077
344 115 2 0.4238 11.662057 4.681402 2.122436
345 115 2 0.4238 10.029076 4.681402 2.122436
346 116 1 -0.8476 10.863474 4.645995 4.703989
347 116 2 0.4238 11.679965 4.645995 5.281348
348 116 2 0.4238 10.046984 4.645995 5.281348
349 117 1 -0.8476 10.871098 4.641058 7.741637
350 117 2 0.4238 11.687589 4.641058 8.318996
351 117 2 0.4238 10.054608 4.641058 8.318996
352 118 1 -0.8476 10.920223 4.669038 10.831820
353 118 2 0.4238 11.736713 4.669038 11.409179
354 118 2 0.4238 10.103732 4.669038 11.409179
355 119 1 -0.8476 10.910742 4.660908 13.953779
356 119 2 0.4238 11.727232 4.660908 14.531138
357 119 2 0.4238 10.094251 4.660908 14.531138
358 120 1 -0.8476 10.893753 4.662420 17.103161
359 120 2 0.4238 11.710243 4.662420 17.680520
360 120 2 0.4238 10.077262 4.662420 17.680520
361 121 1 -0.8476 10.837090 7.739618 1.527004
362 121 2 0.4238 11.653581 7.739618 2.104363
363 121 2 0.4238 10.020600 7.739618 2.104363
364 122 1 -0.8476 10.841657 7.788762 4.637272
365 122 2 0.4238 11.658147 7.788762 5.214631
366 122 2 0.4238 10.025166 7.788762 5.214631
367 123 1 -0.8476 10.895604 7.747155 7.741226
368 123 2 0.4238 11.712095 7.747155 8.318585
369 123 2 0.4238 10.079114 7.747155 8.318585
370 124 1 -0.8476 10.836564 7.793088 10.883189
371 124 2 0.4238 11.653054 7.793088 11.460548
372 124 2 0.4238 10.020073 7.793088 11.460548
373 125 1 -0.8476 10.876630 7.724294 13.996132
374 125 2 0.4238 11.693120 7.724294 14.573491
375 125 2 0.4238 10.060140 7.724294 14.573491
376 126 1 -0.8476 10.836475 7.731355 17.049531
377 126 2 0.4238 11.652965 7.731355 17.626890
378 126 2 0.4238 10.019984 7.731355 17.626890
379 127 1 -0.8476 10.878341 10.829954 1.522305
380 127 2 0.4238 11.694831 10.829954 2.099664
381 127 2 0.4238 10.061850 10.829954 2.099664
382 128 1 -0.8476 10.912621 10.852272 4.624265
383 128 2 0.4238 11.729112 10.852272 5.201624
384 128 2 0.4238 10.096131 10.852272 5.201624
385 129 1 -0.8476 10.883011 10.852783 7.779071
386 129 2 0.4238 11.699501 10.852783 8.356429
387 129 2 0.4238 10.066520 10.852783 8.356429
388 130 1 -0.8476 10.840120 10.857112 10.881437
389 130 2 0.4238 11.656611 10.857112 11.458796
390 130 2 0.4238 10.023630 10.857112 11.458796
391 131 1 -0.8476 10.890973 10.920768 13.972177
392 131 2 0.4238 11.707463 10.920768 14.549536
393 131 2 0.4238 10.074482 10.920768 14.549536
394 132 1 -0.8476 10.904048 10.864072 17.123654
395 132 2 0.4238 11.720538 10.864072 17.701013
396 132 2 0.4238 10.087557 10.864072 17.701013
397 133 1 -0.8476 10.867908 13.946340 1.514664
398 133 2 0.4238 11.684399 13.946340 2.092023
399 133 2 0.4238 10.051418 13.946340 2.092023
400 134 1 -0.8476 10.907098 13.978150 4.673899
401 134 2 0.4238 11.723588 13.978150 5.251258
402 134 2 0.4238 10.090607 13.978150 5.251258
403 135 1 -0.8476 10.892090 13.966143 7.738081
404 135 2 0.4238 11.708581 13.966143 8.315440
405 135 2 0.4238 10.075600 13.966143 8.315440
406 136 1 -0.8476 10.841279 13.948191 10.847304
407 136 2 0.4238 11.657769 13.948191 11.424663
408 136 2 0.4238 10.024789 13.948191 11.424663
409 137 1 -0.8476 10.920342 13.942228 14.002911
410 137 2 0.4238 11.736833 13.942228 14.580270
411 137 2 0.4238 10.103852 13.942228 14.580270
412 138 1 -0.8476 10.900892 14.003897 17.073193
413 138 2 0.4238 11.717382 14.003897 17.650552
414 138 2 0.4238 10.084401 14.003897 17.650552
415 139 1 -0.8476 10.875054 17.116115 1.597131
416 139 2 0.4238 11.691544 17.116115 2.174489
417 139 2 0.4238 10.058563 17.116115 2.174489
418 140 1 -0.8476 10.900748 17.051663 4.611223
419 140 2 0.4238 11.717238 17.051663 5.188582
420 140 2 0.4238 10.084257 17.051663 5.188582
421 141 1 -0.8476 10.917696 17.093030 7.722844
422 141 2 0.4238 11.734186 17.093030 8.300203
423 141 2 0.4238 10.101205 17.093030 8.300203
424 142 1 -0.8476 10.916164 17.096571 10.891556
425 142 2 0.4238 11.732654 17.096571 11.468915
426 142 2 0.4238 10.099673 17.096571 11.468915
427 143 1 -0.8476 10.899733 17.074786 13.980183
428 143 2 0.4238 11.716223 17.074786 14.557542
429 143 2 0.4238 10.083242 17.074786 14.557542
430 144 1 -0.8476 10.835292 17.129884 17.088464
431 144 2 0.4238 11.651782 17.129884 17.665823
432 144 2 0.4238 10.018801 17.129884 17.665823
433 145 1 -0.8476 13.961678 1.503911 1.556766
434 145 2 0.4238 14.778168 1.503911 2.134125
435 145 2 0.4238 13.145188 1.503911 2.134125
436 146 1 -0.8476 13.983185 1.565599 4.641107
437 146 2 0.4238 14.799675 1.565599 5.218466
438 146 2 0.4238 13.166694 1.565599 5.218466
439 147 1 -0.8476 13.970043 1.567006 7.721624
440 147 2 0.4238 14.786534 1.567006 8.298983
441 147 2 0.4238 13.153553 1.567006 8.298983
442 148 1 -0.8476 13.990914 1.517739 10.841785
443 148 2 0.4238 14.807405 1.517739 11.419144
444 148 2 0.4238 13.174424 1.517739 11.419144
445 149 1 -0.8476 14.021505 1.601679 14.019832
446 149 2 0.4238 14.837995 1.601679 14.597191
447 149 2 0.4238 13.205014 1.601679 14.597191
448 150 1 -0.8476 14.024232 1.529505 17.128556
449 150 2 0.4238 14.840723 1.529505 17.705915
450 150 2 0.4238 13.207742 1.529505 17.705915
451 151 1 -0.8476 14.010353 4.628807 1.534779
452 151 2 0.4238 14.826844 4.628807 2.112138
453 151 2 0.4238 13.193863 4.628807 2.112138
454 152 1 -0.8476 14.028247 4.685489 4.614957
455 152 2 0.4238 14.844737 4.685489 5.192316
456 152 2 0.4238 13.211756 4.685489 5.192316
457 153 1 -0.8476 13.948144 4.664043 7.767908
458 153 2 0.4238 14.764634 4.664043 8.345267
459 153 2 0.4238 13.131653 4.664043 8.345267
460 154 1 -0.8476 13.984146 4.674180 10.894514
461 154 2 0.4238 14.800637 4.674180 11.471873
462 154 2 0.4238 13.167656 4.674180 11.471873
463 155 1 -0.8476 13.998606 4.703237 13.950688
464 155 2 0.4238 14.815097 4.703237 14.528047
465 155 2 0.4238 13.182116 4.703237 14.528047
466 156 1 -0.8476 13.964736 4.667025 17.067034
467 156 2 0.4238 14.781226 4.667025 17.644393
468 156 2 0.4238 13.148245 4.667025 17.644393
469 157 1 -0.8476 14.013114 7.777063 1.529711
470 157 2 0.4238 14.829604 7.777063 2.107070
471 157 2 0.4238 13.196624 7.777063 2.107070
472 158 1 -0.8476 13.943001 7.734042 4.669092
473 158 2 0.4238 14.759491 7.734042 5.246451
474 158 2 0.4238 13.126510 7.734042 5.246451
475 159 1 -0.8476 14.012258 7.738180 7.734064
476 159 2 0.4238 14.828749 7.738180 8.311423
477 159 2 0.4238 13.195768 7.738180 8.311423
478 160 1 -0.8476 14.016713 7.750884 10.863941
479 160 2 0.4238 14.833203 7.750884 11.441300
480 160 2 0.4238 13.200223 7.750884 11.441300
481 161 1 -0.8476 14.027441 7.753662 13.971818
482 161 2 0.4238 14.843932 7.753662 14.549177
483 161 2 0.4238 13.210951 7.753662 14.549177
484 162 1 -0.8476 13.965474 7.794116 17.128592
485 162 2 0.4238 14.781964 7.794116 17.705951
486 162 2 0.4238 13.148983 7.794116 17.705951
487 163 1 -0.8476 14.002270 10.873366 1.548534
488 163 2 0.4238 14.818761 10.873366 2.125893
489 163 2 0.4238 13.185780 10.873366 2.125893
490 164 1 -0.8476 13.969072 10.856628 4.638950
491 164 2 0.4238 14.785562 10.856628 5.216309
492 164 2 0.4238 13.152582 10.856628 5.216309
493 165 1 -0.8476 14.015996 10.887547 7.809533
494 165 2 0.4238 14.832486 10.887547 8.386891
495 165 2 0.4238 13.199506 10.887547 8.386891
496 166 1 -0.8476 13.963148 10.908685 10.902496
497 166 2 0.4238 14.779638 10.908685 11.479855
498 166 2 0.4238 13.146657 10.908685 11.479855
499 167 1 -0.8476 14.023212 10.842469 13.968160
500 167 2 0.4238 14.839702 10.842469 14.545519
501 167 2 0.4238 13.206721 10.842469 14.545519
502 168 1 -0.8476 13.993154 10.878042 17.065473
503 168 2 0.4238 14.809644 10.878042 17.642832
504 168 2 0.4238 13.176663 10.878042 17.642832
505 169 1 -0.8476 14.000333 14.024131 1.570501
506 169 2 0.4238 14.816823 14.024131 2.147860
507 169 2 0.4238 13.183842 14.024131 2.147860
508 170 1 -0.8476 13.938638 13.956060 4.638178
509 170 2 0.4238 14.755129 13.956060 5.215537
510 170 2 0.4238 13.122148 13.956060 5.215537
511 171 1 -0.8476 13.999148 14.021821 7.777432
512 171 2 0.4238 14.815639 14.021821 8.354791
513 171 2 0.4238 13.182658 14.021821 8.354791
514 172 1 -0.8476 13.948314 13.945835 10.857928
515 172 2 0.4238 14.764804 13.945835 11.435287
516 172 2 0.4238 13.131824 13.945835 11.435287
517 173 1 -0.8476 13.942700 14.004295 13.985599
518 173 2 0.4238 14.759190 14.004295 14.562958
519 173 2 0.4238 13.126209 14.004295 14.562958
520 174 1 -0.8476 13.979378 14.023005 17.059803
521 174 2 0.4238 14.795868 14.023005 17.637162
522 174 2 0.4238 13.162887 14.023005 17.637162
523 175 1 -0.8476 14.013583 17.067392 1.559091
524 175 2 0.4238 14.830073 17.067392 2.136449
525 175 2 0.4238 13.197092 17.067392 2.136449
526 176 1 -0.8476 13.969118 17.062051 4.644645
527 176 2 0.4238 14.785608 17.062051 5.222004
528 176 2 0.4238 13.152627 17.062051 5.222004
529 177 1 -0.8476 13.983657 17.119371 7.762998
530 177 2 0.4238 14.800147 17.119371 8.340357
531 177 2 0.4238 13.167166 17.119371 8.340357
532 178 1 -0.8476 13.985833 17.044626 10.900719
533 178 2 0.4238 14.802324 17.044626 11.478078
534 178 2 0.4238 13.169343 17.044626 11.478078
535 179 1 -0.8476 14.028419 17.069843 14.020200
536 179 2 0.4238 14.844910 17.069843 14.597559
537 179 2 0.4238 13.211929 17.069843 14.597559
538 180 1 -0.8476 13.989646 17.050316 17.110112
539 180 2 0.4238 14.806137 17.050316 17.687471
540 180 2 0.4238 13.173156 17.050316 17.687471
541 181 1 -0.8476 17.093192 1.515117 1.560765
542 181 2 0.4238 17.909683 1.515117 2.138124
543 181 2 0.4238 16.276702 1.515117 2.138124
544 182 1 -0.8476 17.128447 1.509995 4.623118
545 182 2 0.4238 17.944937 1.509995 5.200477
546 182 2 0.4238 16.311956 1.509995 5.200477
547 183 1 -0.8476 17.123125 1.592970 7.807387
548 183 2 0.4238 17.939616 1.592970 8.384746
549 183 2 0.4238 16.306635 1.592970 8.384746
550 184 1 -0.8476 17.047636 1.554236 10.923188
551 184 2 0.4238 17.864126 1.554236 11.500547
552 184 2 0.4238 16.231145 1.554236 11.500547
553 185 1 -0.8476 17.053846 1.555213 13.972804
554 185 2 0.4238 17.870336 1.555213 14.550163
555 185 2 0.4238 16.237355 1.555213 14.550163
556 186 1 -0.8476 17.095060 1.571256 17.092651
557 186 2 0.4238 17.911550 1.571256 17.670010
558 186 2 0.4238 16.278570 1.571256 17.670010
559 187 1 -0.8476 17.082794 4.666115 1.510858
560 187 2 0.4238 17.899285 4.666115 2.088217
561 187 2 0.4238 16.266304 4.666115 2.088217
562 188 1 -0.8476 17.091988 4.690094 4.667189
563 188 2 0.4238 17.908478 4.690094 5.244548
564 188 2 0.4238 16.275497 4.690094 5.244548
565 189 1 -0.8476 17.083061 4.648914 7.803648
566 189 2 0.4238 17.899552 4.648914 8.381007
567 189 2 0.4238 16.266571 4.648914 8.381007
568 190 1 -0.8476 17.115303 4.673843 10.891436
569 190 2 0.4238 17.931793 4.673843 11.468795
570 190 2 0.4238 16.298813 4.673843 11.468795
571 191 1 -0.8476 17.094951 4.636675 13.947295
572 191 2 0.4238 17.911442 4.636675 14.524654
573 191 2 0.4238 16.278461 4.636675 14.524654
574 192 1 -0.8476 17.116520 4.647719 17.083114
575 192 2 0.4238 17.933011 4.647719 17.660473
576 192 2 0.4238 16.300030 4.647719 17.660473
577 193 1 -0.8476 17.080989 7.784855 1.543524
578 193 2 0.4238 17.897479 7.784855 2.120883
579 193 2 0.4238 16.264499 7.784855 2.120883
580 194 1 -0.8476 17.137560 7.790395 4.668391
581 194 2 0.4238 17.954050 7.790395 5.245750
582 194 2 0.4238 16.321070 7.790395 5.245750
583 195 1 -0.8476 17.129523 7.728358 7.753782
584 195 2 0.4238 17.946013 7.728358 8.331141
585 195 2 0.4238 16.313032 7.728358 8.331141
586 196 1 -0.8476 17.109741 7.776339 10.830926
587 196 2 0.4238 17.926232 7.776339 11.408285
588 196 2 0.4238 16.293251 7.776339 11.408285
589 197 1 -0.8476 17.127581 7.797011 14.031000
590 197 2 0.4238 17.944071 7.797011 14.608359
591 197 2 0.4238 16.311090 7.797011 14.608359
592 198 1 -0.8476 17.101770 7.814432 17.071559
593 198 2 0.4238 17.918261 7.814432 17.648918
594 198 2 0.4238 16.285280 7.814432 17.648918
595 199 1 -0.8476 17.106269 10.924161 1.543699
596 199 2 0.4238 17.922760 10.924161 2.121058
597 199 2 0.4238 16.289779 10.924161 2.121058
598 200 1 -0.8476 17.135553 10.848612 4.670567
599 200 2 0.4238 17.952044 10.848612 5.247926
600 200 2 0.4238 16.319063 10.848612 5.247926
601 201 1 -0.8476 17.052181 10.900745 7.779647
602 201 2 0.4238 17.868671 10.900745 8.357006
603 201 2 0.4238 16.235690 10.900745 8.357006
604 202 1 -0.8476 17.063211 10.852363 10.923693
605 202 2 0.4238 17.879701 10.852363 11.501052
606 202 2 0.4238 16.246720 10.852363 11.501052
607 203 1 -0.8476 17.125580 10.844851 13.978434
608 203 2 0.4238 17.942071 10.844851 14.555793
609 203 2 0.4238 16.309090 10.844851 14.555793
610 204 1 -0.8476 17.133846 10.864078 17.107325
611 204 2 0.4238 17.950336 10.864078 17.684684
612 204 2 0.4238 16.317355 10.864078 17.684684
613 205 1 -0.8476 17.136816 13.989468 1.602743
614 205 2 0.4238 17.953307 13.989468 2.180102
615 205 2 0.4238 16.320326 13.989468 2.180102
616 206 1 -0.8476 17.083523 13.981863 4.615697
617 206 2 0.4238 17.900013 13.981863 5.193056
618 206 2 0.4238 16.267032 13.981863 5.193056
619 207 1 -0.8476 17.091087 13.969976 7.763272
620 207 2 0.4238 17.907577 13.969976 8.340631
621 207 2 0.4238 16.274596 13.969976 8.340631
622 208 1 -0.8476 17.051881 14.014171 10.832806
623 208 2 0.4238 17.868371 14.014171 11.410165
624 208 2 0.4238 16.235390 14.014171 11.410165
625 209 1 -0.8476 17.125119 13.967185 14.015249
626 209 2 0.4238 17.941609 13.967185 14.592608
627 209 2 0.4238 16.308628 13.967185 14.592608
628 210 1 -0.8476 17.050783 13.963659 17.119096
629 210 2 0.4238 17.867273 13.963659 17.696455
630 210 2 0.4238 16.234292 13.963659 17.696455
631 211 1 -0.8476 17.118927 17.110073 1.600674
632 211 2 0.4238 17.935417 17.110073 2.178033
633 211 2 0.4238 16.302437 17.110073 2.178033
634 212 1 -0.8476 17.064080 17.131959 4.616228
635 212 2 0.4238 17.880571 17.131959 5.193587
636 212 2 0.4238 16.247590 17.131959 5.193587
637 213 1 -0.8476 17.062633 17.132695 7.812983
638 213 2 0.4238 17.879123 17.132695 8.390342
639 213 2 0.4238 16.246142 17.132695 8.390342
640 214 1 -0.8476 17.045615 17.076363 10.916931
641 214 2 0.4238 17.862105 17.076363 11.494290
642 214 2 0.4238 16.229124 17.076363 11.494290
643 215 1 -0.8476 17.056182 17.089747 13.951573
644 215 2 0.4238 17.872673 17.089747 14.528932
645 215 2 0.4238 16.239692 17.089747 14.528932
646 216 1 -0.8476 17.044349 17.118755 17.109354
647 216 2 0.4238 17.860839 17.118755 17.686713
648 216 2 0.4238 16.227859 17.118755 17.686713

Bonds

1 1 1 2
2 1 1 3
3 1 4 5
4 1 4 6
5 1 7 8
6 1 7 9
7 1 10 11
8 1 10 12
9 1 13 14
10 1 13 15
11 1 16 17
12 1 16 18
13 1 19 20
14 1 19 21
15 1 22 23
16 1 22 24
17 1 25 26
18 1 25 27
19 1 28 29
20 1 28 30
21 1 31 32
22 1 31 33
23 1 34 35
24 1 34 36
25 1 37 38
26 1 37 39
27 1 40 41
28 1 40 42
29 1 43 44
30 1 43 45
31 1 46 47
32 1 46 48
33 1 49 50
34 1 49 51
35 1 52 53
36 1 52 54
37 1 55 56
38 1 55 57
39 1 58 59
40 1 58 60
41 1 61 62
42 1 61 63
43 1 64 65
44 1 64 66